# LAMMPS data file for a single SPC/E water molecule.

3 atoms
2 bonds
1 angles
0 dihedrals
0 impropers
2 atom types
1 bond types
1 angle types
0 dihedral types
0 improper types

0.0 3.5 xlo xhi
0.0 3.5 ylo yhi
0.0 3.5 zlo zhi

Masses

1  1.007940 # H
2 15.999400 # O

Pair Coeffs

1 0.000000 0.000000 # H ... H
2 0.1553   3.116 # O ... O <<< Enter oxygen--oxygen LJ parameters here! (left: epsilon; right: sigma)

Bond Coeffs

1 1000.0 1.000 # O-H <<< Enter equilibrium bond length here!

Angle Coeffs

1  100.0 109.47 # H-O-H <<< Enter equilibrium angle here!

Atoms

1 1 2 -0.8476 0.0000 0.3333 0.0000 # O <<< Enter charge here!
2 1 1  0.4238 0.0000 1.3333 0.0000 # H <<< Enter charge here!
3 1 1  0.4238 0.9428 0.0000 0.0000 # H <<< Enter charge here!

Bonds

1 1 1 2 # O-H
2 1 1 3 # O-H

Angles

1 1 2 1 3 # H-O-H

